 Gaussian 16, Revision C.01,
 Gaussian 16:  ES64L-G16RevC.01  3-Jul-2019

 ---------------------------------------------
 #p ub3lyp/gen pseudo=cards pop=(orbitals=250)
 ---------------------------------------------

 -----------
 Se28Cd17H22
 -----------
 Symbolic Z-matrix:
 Charge = -1 Multiplicity = 1

                         Standard orientation:
 ---------------------------------------------------------------------
 Center     Atomic      Atomic             Coordinates (Angstroms)
 Number     Number       Type             X           Y           Z
 ---------------------------------------------------------------------
      1         34           0       -0.441992    2.693819    0.050592
      2         34           0       -4.754590   -1.615948    2.428075
      3         34           0       -1.867217   -4.719648    1.308235
      4         34           0        1.888732    3.144183    3.690675
      5         34           0       -2.912639    2.422793   -3.785675
      6         34           0        4.649253   -3.930126   -3.447558
      7         34           0        5.144827    0.547980   -4.445846
      8         34           0        6.977190   -1.257004   -0.401411
      9         34           0       -2.925953    6.245515    1.893796
     10         34           0        2.835238   -4.483906    0.851919
     11         34           0        4.639779   -0.321625    3.211328
     12         34           0        4.343598    2.829673   -0.353637
     13         34           0        1.528252    3.070359   -4.174345
     14         34           0        0.341615   -0.887529   -5.247819
     15         34           0        0.333272   -4.731799   -2.869483
     16         34           0       -4.122117   -5.112675   -2.601360
     17         34           0       -4.176074   -1.394482   -5.549975
     18         34           0       -6.727364   -1.436497   -1.564265
     19         34           0        1.809799   -0.402442    6.621470
     20         34           0        0.817177   -4.775351    4.909084
     21         34           0       -2.573135   -1.848452    6.250780
     22         34           0       -1.014771    6.397821   -2.479671
     23         34           0        1.835136    6.509430    0.846285
     24         34           0       -2.532955    2.196573    4.113721
     25         34           0       -4.838679    2.373786    0.140129
     26         34           0        2.364263   -0.682992   -1.138504
     27         34           0       -2.305307   -1.210321   -1.441400
     28         34           0       -0.020432   -1.073234    2.668025
     29         48           0        5.868161   -1.492350   -2.717167
     30         48           0        0.592682   -3.758802    2.246392
     31         48           0       -0.037159   -0.022401   -0.062471
     32         48           0        4.968472    0.257185    0.425565
     33         48           0       -0.884355    6.518636    0.321592
     34         48           0       -4.901814   -2.560648   -3.230140
     35         48           0        0.072998   -2.303865    5.804546
     36         48           0       -2.583458   -0.491060    3.727409
     37         48           0       -2.689269    3.636031    1.609449
     38         48           0       -4.565583   -0.320972   -0.039999
     39         48           0        3.323151    1.676042   -2.589738
     40         48           0        2.533226   -3.322223   -1.749080
     41         48           0        2.104335    0.415905    3.863198
     42         48           0        2.109356    3.679162    0.892880
     43         48           0       -0.671281    3.624139   -2.586296
     44         48           0       -1.958048   -0.161309   -4.126037
     45         48           0       -1.826759   -3.939721   -1.373042
     46          1           0       -2.512158    6.341437   -2.498878
     47          1           0        1.646806    6.620090    2.329147
     48          1           0       -6.891590   -2.656609   -0.708311
     49          1           0       -3.438420   -5.393581   -3.904679
     50          1           0        3.921432   -3.498631   -4.685764
     51          1           0       -3.057356   -3.164298    5.721107
     52          1           0        2.294930   -4.565809    5.039849
     53          1           0       -3.377718   -2.562657   -6.045592
     54          1           0        0.732310    0.573832    6.987103
     55          1           0       -4.081032   -2.902031    2.049744
     56          1           0        4.093426   -0.181256   -5.227863
     57          1           0        3.335676    3.361290    4.021554
     58          1           0       -5.866237    2.357500    1.231966
     59          1           0        0.577302   -6.003339   -2.109679
     60          1           0        2.394260   -5.894074    0.592287
     61          1           0        0.990436    1.811827   -4.812974
     62          1           0       -3.961512    2.367904    4.532193
     63          1           0       -2.597316    2.873637   -5.180058
     64          1           0       -1.546722   -6.171754    1.133755
     65          1           0        4.452356   -1.792475    3.004802
     66          1           0        1.040851   -0.969559   -3.916224
 ---------------------------------------------------------------------

 SCF Done:  E(UB3LYP) =  -1089.76289720     A.U. after   13 cycles

 The electronic state is 1-A.
 Alpha  occ. eigenvalues --   -0.66759  -0.66648  -0.66481  -0.66450  -0.66247
 Alpha  occ. eigenvalues --   -0.66124  -0.66044  -0.65605  -0.65401  -0.65294
 Alpha  occ. eigenvalues --   -0.64355  -0.64152  -0.64056  -0.63947  -0.63695
 Alpha  occ. eigenvalues --   -0.63524  -0.63458  -0.63360  -0.63222  -0.62965
 Alpha  occ. eigenvalues --   -0.62926  -0.62897  -0.62538  -0.62532  -0.62517
 Alpha  occ. eigenvalues --   -0.62503  -0.62280  -0.62238  -0.62118  -0.62107
 Alpha  occ. eigenvalues --   -0.61884  -0.61855  -0.61759  -0.61722  -0.61566
 Alpha  occ. eigenvalues --   -0.61525  -0.61489  -0.61465  -0.61406  -0.61352
 Alpha  occ. eigenvalues --   -0.61279  -0.61199  -0.60997  -0.60968  -0.60937
 Alpha  occ. eigenvalues --   -0.60858  -0.60833  -0.60780  -0.60708  -0.60619
 Alpha  occ. eigenvalues --   -0.60523  -0.60324  -0.60261  -0.60226  -0.60169
 Alpha  occ. eigenvalues --   -0.60129  -0.60103  -0.59974  -0.59913  -0.59787
 Alpha  occ. eigenvalues --   -0.59745  -0.59724  -0.59708  -0.59689  -0.59663
 Alpha  occ. eigenvalues --   -0.59629  -0.59592  -0.59498  -0.59487  -0.59479
 Alpha  occ. eigenvalues --   -0.59370  -0.59358  -0.59312  -0.59237  -0.58997
 Alpha  occ. eigenvalues --   -0.58934  -0.58836  -0.58653  -0.58463  -0.58412
 Alpha  occ. eigenvalues --   -0.58273  -0.58187  -0.58131  -0.58108  -0.58096
 Alpha  occ. eigenvalues --   -0.58013  -0.58000  -0.57969  -0.57941  -0.57897
 Alpha  occ. eigenvalues --   -0.57855  -0.57838  -0.57736  -0.57716  -0.57686
 Alpha  occ. eigenvalues --   -0.57636  -0.57589  -0.57487  -0.57466  -0.57368
 Alpha  occ. eigenvalues --   -0.57203  -0.57184  -0.57115  -0.57055  -0.56993
 Alpha  occ. eigenvalues --   -0.56586  -0.56471  -0.56395  -0.55643  -0.55139
 Alpha  occ. eigenvalues --   -0.53190  -0.51597  -0.51023  -0.36481  -0.35903
 Alpha  occ. eigenvalues --   -0.35839  -0.35476  -0.35297  -0.34919  -0.34792
 Alpha  occ. eigenvalues --   -0.34506  -0.34223  -0.34175  -0.33661  -0.33530
 Alpha  occ. eigenvalues --   -0.32963  -0.32858  -0.32838  -0.32767  -0.32625
 Alpha  occ. eigenvalues --   -0.32125  -0.31800  -0.31295  -0.30616  -0.30014
 Alpha  occ. eigenvalues --   -0.29890  -0.29629  -0.29615  -0.29174  -0.28618
 Alpha  occ. eigenvalues --   -0.28404  -0.28148  -0.27872  -0.27290  -0.26923
 Alpha  occ. eigenvalues --   -0.26495  -0.26088  -0.25386  -0.25188  -0.24914
 Alpha  occ. eigenvalues --   -0.24307  -0.24193  -0.23794  -0.23688  -0.23583
 Alpha  occ. eigenvalues --   -0.23416  -0.23359  -0.23158  -0.23041  -0.22702
 Alpha  occ. eigenvalues --   -0.22320  -0.22278  -0.22144  -0.21973  -0.21872
 Alpha  occ. eigenvalues --   -0.21762  -0.21642  -0.21554  -0.21310  -0.21209
 Alpha  occ. eigenvalues --   -0.21064  -0.20881  -0.20735  -0.20640  -0.20517
 Alpha  occ. eigenvalues --   -0.20414  -0.20080  -0.19759  -0.19641  -0.19436
 Alpha  occ. eigenvalues --   -0.19261  -0.19176  -0.19141  -0.19092  -0.18852
 Alpha  occ. eigenvalues --   -0.18750  -0.18600  -0.17916  -0.17889  -0.17311
 Alpha  occ. eigenvalues --   -0.16853  -0.16646  -0.16318  -0.16127  -0.15778
 Alpha  occ. eigenvalues --   -0.13240  -0.12781
 Alpha virt. eigenvalues --   -0.04813  -0.02716  -0.01779  -0.01486  -0.01144
 Alpha virt. eigenvalues --   -0.01070  -0.00032   0.00219   0.00413   0.00881
 Alpha virt. eigenvalues --    0.01394   0.01776   0.01854   0.02263   0.02554

  Beta  occ. eigenvalues --   -0.66759  -0.66648  -0.66481  -0.66450  -0.66247
  Beta  occ. eigenvalues --   -0.66124  -0.66044  -0.65605  -0.65401  -0.65294
  Beta  occ. eigenvalues --   -0.64355  -0.64152  -0.64056  -0.63947  -0.63695
  Beta  occ. eigenvalues --   -0.63524  -0.63458  -0.63360  -0.63222  -0.62965
  Beta  occ. eigenvalues --   -0.62926  -0.62897  -0.62538  -0.62532  -0.62517
  Beta  occ. eigenvalues --   -0.62503  -0.62280  -0.62238  -0.62118  -0.62107
  Beta  occ. eigenvalues --   -0.61884  -0.61855  -0.61759  -0.61722  -0.61566
  Beta  occ. eigenvalues --   -0.61525  -0.61489  -0.61465  -0.61406  -0.61352
  Beta  occ. eigenvalues --   -0.61279  -0.61199  -0.60997  -0.60968  -0.60937
  Beta  occ. eigenvalues --   -0.60858  -0.60833  -0.60780  -0.60708  -0.60619
  Beta  occ. eigenvalues --   -0.60523  -0.60324  -0.60261  -0.60226  -0.60169
  Beta  occ. eigenvalues --   -0.60129  -0.60103  -0.59974  -0.59913  -0.59787
  Beta  occ. eigenvalues --   -0.59745  -0.59724  -0.59708  -0.59689  -0.59663
  Beta  occ. eigenvalues --   -0.59629  -0.59592  -0.59498  -0.59487  -0.59479
  Beta  occ. eigenvalues --   -0.59370  -0.59358  -0.59312  -0.59237  -0.58997
  Beta  occ. eigenvalues --   -0.58934  -0.58836  -0.58653  -0.58463  -0.58412
  Beta  occ. eigenvalues --   -0.58273  -0.58187  -0.58131  -0.58108  -0.58096
  Beta  occ. eigenvalues --   -0.58013  -0.58000  -0.57969  -0.57941  -0.57897
  Beta  occ. eigenvalues --   -0.57855  -0.57838  -0.57736  -0.57716  -0.57686
  Beta  occ. eigenvalues --   -0.57636  -0.57589  -0.57487  -0.57466  -0.57368
  Beta  occ. eigenvalues --   -0.57203  -0.57184  -0.57115  -0.57055  -0.56993
  Beta  occ. eigenvalues --   -0.56586  -0.56471  -0.56395  -0.55643  -0.55139
  Beta  occ. eigenvalues --   -0.53190  -0.51597  -0.51023  -0.36481  -0.35903
  Beta  occ. eigenvalues --   -0.35839  -0.35476  -0.35297  -0.34919  -0.34792
  Beta  occ. eigenvalues --   -0.34506  -0.34223  -0.34175  -0.33661  -0.33530
  Beta  occ. eigenvalues --   -0.32963  -0.32858  -0.32838  -0.32767  -0.32625
  Beta  occ. eigenvalues --   -0.32125  -0.31800  -0.31295  -0.30616  -0.30014
  Beta  occ. eigenvalues --   -0.29890  -0.29629  -0.29615  -0.29174  -0.28618
  Beta  occ. eigenvalues --   -0.28404  -0.28148  -0.27872  -0.27290  -0.26923
  Beta  occ. eigenvalues --   -0.26495  -0.26088  -0.25386  -0.25188  -0.24914
  Beta  occ. eigenvalues --   -0.24307  -0.24193  -0.23794  -0.23688  -0.23583
  Beta  occ. eigenvalues --   -0.23416  -0.23359  -0.23158  -0.23041  -0.22702
  Beta  occ. eigenvalues --   -0.22320  -0.22278  -0.22144  -0.21973  -0.21872
  Beta  occ. eigenvalues --   -0.21762  -0.21642  -0.21554  -0.21310  -0.21209
  Beta  occ. eigenvalues --   -0.21064  -0.20881  -0.20735  -0.20640  -0.20517
  Beta  occ. eigenvalues --   -0.20414  -0.20080  -0.19759  -0.19641  -0.19436
  Beta  occ. eigenvalues --   -0.19261  -0.19176  -0.19141  -0.19092  -0.18852
  Beta  occ. eigenvalues --   -0.18750  -0.18600  -0.17916  -0.17889  -0.17311
  Beta  occ. eigenvalues --   -0.16853  -0.16646  -0.16318  -0.16127  -0.15778
  Beta  occ. eigenvalues --   -0.13240  -0.12781
  Beta virt. eigenvalues --   -0.04813  -0.02716  -0.01779  -0.01486  -0.01144
  Beta virt. eigenvalues --   -0.01070  -0.00032   0.00219   0.00413   0.00881
  Beta virt. eigenvalues --    0.01394   0.01776   0.01854   0.02263   0.02554

 Mulliken charges and spin densities:
               1          2
     1  Se  -0.705611   0.000000
     2  Se  -0.315763   0.000000
     3  Se  -0.337552   0.000000
     4  Se  -0.304108  -0.000000
     5  Se  -0.310685   0.000000
     6  Se  -0.305816  -0.000000
     7  Se  -0.301102  -0.000000
     8  Se  -0.462124  -0.000000
     9  Se  -0.461348  -0.000000
    10  Se  -0.284579  -0.000000
    11  Se  -0.305307  -0.000000
    12  Se  -0.491695  -0.000000
    13  Se  -0.312094   0.000000
    14  Se  -0.341694  -0.000000
    15  Se  -0.277437  -0.000000
    16  Se  -0.290061   0.000000
    17  Se  -0.271400  -0.000000
    18  Se  -0.267170   0.000000
    19  Se  -0.269948   0.000000
    20  Se  -0.287731   0.000000
    21  Se  -0.273356   0.000000
    22  Se  -0.311707   0.000000
    23  Se  -0.308250   0.000000
    24  Se  -0.298823   0.000000
    25  Se  -0.288785   0.000000
    26  Se  -0.682109   0.000000
    27  Se  -0.723309   0.000000
    28  Se  -0.722822   0.000000
    29  Cd   0.323415   0.000000
    30  Cd   0.530532   0.000000
    31  Cd   0.792429  -0.000000
    32  Cd   0.470436  -0.000000
    33  Cd   0.323201  -0.000000
    34  Cd   0.416575   0.000000
    35  Cd   0.420233  -0.000000
    36  Cd   0.527684  -0.000000
    37  Cd   0.513168   0.000000
    38  Cd   0.543148  -0.000000
    39  Cd   0.545071   0.000000
    40  Cd   0.568787  -0.000000
    41  Cd   0.546909  -0.000000
    42  Cd   0.531771  -0.000000
    43  Cd   0.553585  -0.000000
    44  Cd   0.502259   0.000000
    45  Cd   0.535847  -0.000000
    46  H    0.050165  -0.000000
    47  H    0.047095  -0.000000
    48  H    0.044430  -0.000000
    49  H    0.052731  -0.000000
    50  H    0.040913   0.000000
    51  H    0.046420   0.000000
    52  H    0.054518   0.000000
    53  H    0.046955   0.000000
    54  H    0.054740  -0.000000
    55  H    0.053754   0.000000
    56  H    0.040597  -0.000000
    57  H    0.036937   0.000000
    58  H    0.027974  -0.000000
    59  H    0.021708  -0.000000
    60  H    0.024921  -0.000000
    61  H    0.054941  -0.000000
    62  H    0.034920   0.000000
    63  H    0.043828  -0.000000
    64  H    0.046782  -0.000000
    65  H    0.041309   0.000000
    66  H    0.001696  -0.000000
 Sum of Mulliken charges =  -1.00000   0.00000

 Dipole moment (field-independent basis, Debye):
    X=             -9.4416    Y=            -12.0926    Z=              2.8178  Tot=             15.5985
 Quadrupole moment (field-independent basis, Debye-Ang):
   XX=           -908.4363   YY=           -849.4781   ZZ=           -829.8591
   XY=             25.4681   XZ=             14.7206   YZ=             -4.6646

 Normal termination of Gaussian 16 at Tue Mar 28 13:38:13 2023.
