 Gaussian 16, Revision C.02,
 Gaussian 16:  ES64L-G16RevC.02  7-Dec-2021

 ------------------------------------------
 # pop=(orbitals=20) nosymm upbe1pbe/6-31g*
 sdfa  asfd
 ------------------------------------------

 -------------------
 Title Card Required
 -------------------
 Symbolic Z-matrix:
 Charge =  0 Multiplicity = 1

                          Input orientation:
 ---------------------------------------------------------------------
 Center     Atomic      Atomic             Coordinates (Angstroms)
 Number     Number       Type             X           Y           Z
 ---------------------------------------------------------------------
      1          6           0        2.264022   -2.414501    0.000000
      2          6           0        3.659182   -2.414501    0.000000
      3          6           0        4.356720   -1.206750    0.000000
      4          6           0        3.659066    0.001759   -0.001199
      5          6           0        2.264241    0.001681   -0.001678
      6          6           0        1.566640   -1.206525   -0.000682
      7          1           0        1.714263   -3.366818    0.000450
      8          1           0        4.208690   -3.367014    0.001315
      9          1           0        5.456400   -1.206670    0.000634
     10          1           0        1.714119    0.953962   -0.002631
     11          1           0        0.467036   -1.206342   -0.000862
     12          6           0        4.429570    1.335147   -0.001282
     13          6           0        4.779022    1.938744   -1.209597
     14          6           0        4.777992    1.939471    1.206586
     15          6           0        5.477329    3.146051   -1.209949
     16          1           0        4.504859    1.461664   -2.161685
     17          6           0        5.475649    3.147645    1.206406
     18          1           0        4.502492    1.463970    2.159018
     19          6           0        5.825466    3.750915   -0.001580
     20          1           0        5.753354    3.621555   -2.162316
     21          1           0        5.749871    3.624104    2.158910
     22          1           0        6.376005    4.702863   -0.002108
 ---------------------------------------------------------------------

 SCF Done:  E(UPBE1PBE) =  -462.743541907     A.U. after   12 cycles

 Alpha  occ. eigenvalues --  -10.24830 -10.24806 -10.23961 -10.23958 -10.23943
 Alpha  occ. eigenvalues --  -10.23941 -10.23852 -10.23849 -10.23815 -10.23813
 Alpha  occ. eigenvalues --  -10.23812 -10.23810  -0.88825  -0.86855  -0.79113
 Alpha  occ. eigenvalues --   -0.76405  -0.76405  -0.73935  -0.63264  -0.61818
 Alpha  occ. eigenvalues --   -0.61818  -0.58972  -0.53822  -0.51126  -0.47003
 Alpha  occ. eigenvalues --   -0.46122  -0.46121  -0.45230  -0.42855  -0.42855
 Alpha  occ. eigenvalues --   -0.42254  -0.37507  -0.37506  -0.37419  -0.35020
 Alpha  occ. eigenvalues --   -0.35019  -0.33105  -0.26189  -0.25640  -0.25569
 Alpha  occ. eigenvalues --   -0.25565
 Alpha virt. eigenvalues --   -0.00235   0.00739   0.00739   0.01611   0.09602
 Alpha virt. eigenvalues --    0.11036   0.15348   0.15348   0.16530   0.17215
 Alpha virt. eigenvalues --    0.17218   0.17331   0.19624   0.19792   0.20373

  Beta  occ. eigenvalues --  -10.24830 -10.24806 -10.23961 -10.23958 -10.23943
  Beta  occ. eigenvalues --  -10.23941 -10.23852 -10.23849 -10.23815 -10.23813
  Beta  occ. eigenvalues --  -10.23812 -10.23810  -0.88825  -0.86855  -0.79113
  Beta  occ. eigenvalues --   -0.76405  -0.76405  -0.73935  -0.63264  -0.61818
  Beta  occ. eigenvalues --   -0.61818  -0.58972  -0.53822  -0.51126  -0.47003
  Beta  occ. eigenvalues --   -0.46122  -0.46121  -0.45230  -0.42855  -0.42855
  Beta  occ. eigenvalues --   -0.42254  -0.37507  -0.37506  -0.37419  -0.35020
  Beta  occ. eigenvalues --   -0.35019  -0.33105  -0.26189  -0.25640  -0.25569
  Beta  occ. eigenvalues --   -0.25565
  Beta virt. eigenvalues --   -0.00235   0.00739   0.00739   0.01611   0.09602
  Beta virt. eigenvalues --    0.11036   0.15348   0.15348   0.16530   0.17215
  Beta virt. eigenvalues --    0.17218   0.17331   0.19624   0.19792   0.20373

 Mulliken charges and spin densities:
               1          2
     1  C   -0.165255   0.000000
     2  C   -0.174930   0.000000
     3  C   -0.177807   0.000000
     4  C    0.007644   0.000000
     5  C   -0.177898   0.000000
     6  C   -0.174930   0.000000
     7  H    0.168764   0.000000
     8  H    0.170437   0.000000
     9  H    0.176760   0.000000
    10  H    0.176736   0.000000
    11  H    0.170455   0.000000
    12  C    0.007770   0.000000
    13  C   -0.177825   0.000000
    14  C   -0.177889   0.000000
    15  C   -0.174962   0.000000
    16  H    0.176734   0.000000
    17  C   -0.174922   0.000000
    18  H    0.176751   0.000000
    19  C   -0.165315   0.000000
    20  H    0.170465   0.000000
    21  H    0.170444   0.000000
    22  H    0.168772   0.000000
 Sum of Mulliken charges =  -0.00000   0.00000

 Dipole moment (field-independent basis, Debye):
    X=              0.0005    Y=             -0.0006    Z=              0.0006  Tot=              0.0010
 Quadrupole moment (field-independent basis, Debye-Ang):
   XX=            -65.8748   YY=            -62.2658   ZZ=            -67.6947
   XY=              3.1382   XZ=             -0.0021   YZ=             -0.0035

 Normal termination of Gaussian 16 at Mon Mar 27 17:34:46 2023.
